ITEM: TIMESTEP
0
ITEM: NUMBER OF ATOMS
3680
ITEM: BOX BOUNDS pp pp pp
-98.4671326 -0.5328675
-97.7610932 -0.2389069
-1.0 1.0
ITEM: ATOMS type id x y z
1 1 -98.2314682 -96.349144 0.0
1 310 -74.8940354 -65.958458 0.0
1 3 -95.7763748 -96.3471985 0.0
1 309 -77.3895416 -65.8954698 0.0
1 5 -93.3359146 -96.3536606 0.0
1 307 -82.1979752 -65.9482652 0.0
1 7 -90.8236923 -96.2784195 0.0
1 8 -90.7907486 -97.6945496 0.0
1 9 -88.3428955 -96.3554154 0.0
1 306 -84.6876374 -65.9179764 0.0
1 11 -85.980034 -96.3589554 0.0
1 12 -85.942688 -97.7304688 0.0
1 13 -83.4876557 -96.3659516 0.0
1 305 -87.144783 -65.9742662 0.0
1 15 -80.9823608 -96.4286347 0.0
1 304 -89.553772 -66.0494232 0.0
1 17 -78.5568009 -96.4168167 0.0
1 303 -92.0284119 -65.9897462 0.0
1 19 -76.1201782 -96.390358 0.0
1 308 -79.8011017 -65.9356766 0.0
1 21 -96.9239884 -94.2058792 0.0
1 22 -97.0172501 -95.6578827 0.0
1 23 -94.5058289 -94.235817 0.0
1 24 -94.5572434 -95.6422806 0.0
1 25 -91.9820252 -94.248375 0.0
1 26 -92.0829086 -95.6507492 0.0
1 27 -89.5370331 -94.2117539 0.0
1 28 -89.557869 -95.6651993 0.0
1 29 -87.1392899 -94.2513504 0.0
1 30 -87.1364441 -95.6331177 0.0
1 31 -84.6710434 -94.2406311 0.0
1 32 -84.7300034 -95.6522141 0.0
1 33 -82.2116242 -94.2818298 0.0
1 34 -82.1789017 -95.6973191 0.0
1 35 -79.8082505 -94.3356476 0.0
1 36 -79.8110657 -95.7247391 0.0
1 37 -77.3808594 -94.2851486 0.0
1 38 -77.3373871 -95.7014466 0.0
1 39 -74.8709106 -94.2257004 0.0
1 40 -74.9104692 -95.6663971 0.0
1 41 -98.149498 -92.1274033 0.0
1 42 -98.176239 -93.589943 0.0
1 43 -95.6552582 -92.0965195 0.0
1 44 -95.715149 -93.4585419 0.0
1 45 -93.2058029 -92.130249 0.0
1 46 -93.2026062 -93.543808 0.0
1 47 -90.8458862 -92.1369629 0.0
1 48 -90.816948 -93.5175171 0.0
1 49 -88.4321671 -92.1721954 0.0
1 50 -88.3049698 -93.5297547 0.0
1 51 -85.9586946 -92.1574326 0.0
1 52 -85.9479142 -93.5446701 0.0
1 53 -83.5014878 -92.1847458 0.0
1 54 -83.4177857 -93.6016617 0.0
1 55 -81.0289688 -92.1548615 0.0
1 56 -80.9843216 -93.5779419 0.0
1 57 -78.5796738 -92.1008606 0.0
1 58 -78.59198 -93.5314713 0.0
1 59 -76.1769638 -92.1584549 0.0
1 60 -76.147522 -93.5442047 0.0
1 61 -96.9812852 -90.029274 0.0
1 62 -96.9131852 -91.4507981 0.0
1 63 -94.4667053 -90.0577927 0.0
1 64 -94.4455948 -91.475174 0.0
1 65 -92.0281219 -89.9972764 0.0
1 66 -91.990677 -91.3805771 0.0
1 67 -89.6072388 -90.0233536 0.0
1 68 -89.6033478 -91.4305954 0.0
1 69 -87.1592636 -90.0172348 0.0
1 70 -87.1923142 -91.4591522 0.0
1 71 -84.7112198 -90.0755539 0.0
1 72 -84.7306366 -91.4573212 0.0
1 73 -82.2044602 -90.0542526 0.0
1 74 -82.3119507 -91.481865 0.0
1 75 -79.7954331 -90.0428619 0.0
1 76 -79.8061676 -91.446991 0.0
1 77 -77.4111023 -90.0430756 0.0
1 78 -77.3714066 -91.4698105 0.0
1 79 -74.9800416 -90.024292 0.0
1 80 -74.9459152 -91.4279938 0.0
1 81 -98.2186279 -87.8492126 0.0
1 82 -98.2113342 -89.2837296 0.0
1 83 -95.7454911 -87.958374 0.0
1 84 -95.7132721 -89.3682175 0.0
1 85 -93.2054977 -87.8406144 0.0
1 86 -93.2889328 -89.2667542 0.0
1 87 -90.742424 -87.9050904 0.0
1 88 -90.7964173 -89.2836151 0.0
1 89 -88.3753204 -87.892563 0.0
1 90 -88.3779831 -89.3109207 0.0
1 91 -85.8925476 -87.8369293 0.0
1 92 -85.9273758 -89.283783 0.0
1 93 -83.4647293 -87.850914 0.0
1 94 -83.4475022 -89.3328323 0.0
1 95 -80.9988252 -87.8861924 0.0
1 96 -81.0432282 -89.2857056 0.0
1 97 -78.5626831 -87.8490678 0.0
1 98 -78.5946732 -89.2456894 0.0
1 99 -76.1334839 -87.9835968 0.0
1 100 -76.1703262 -89.3557968 0.0
1 101 -96.9046478 -85.7326584 0.0
1 102 -96.965912 -87.1601334 0.0
1 103 -94.4595185 -85.7578659 0.0
1 104 -94.487175 -87.1752701 0.0
1 105 -91.9403458 -85.7157364 0.0
1 106 -91.9744798 -87.1570435 0.0
1 107 -89.5572663 -85.7341156 0.0
1 108 -89.5493469 -87.1545868 0.0
1 109 -87.0891418 -85.72789 0.0
1 110 -87.1384201 -87.1645432 0.0
1 111 -84.6036911 -85.7678528 0.0
1 112 -84.6971283 -87.14357 0.0
1 113 -82.1617966 -85.7752915 0.0
1 114 -82.2464447 -87.1641846 0.0
1 115 -79.7062683 -85.8249512 0.0
1 116 -79.7665329 -87.1948624 0.0
1 117 -77.245369 -85.8068009 0.0
1 118 -77.3019409 -87.1904831 0.0
1 119 -74.8314209 -85.7827378 0.0
1 120 -74.9198074 -87.2180328 0.0
1 121 -98.168602 -83.5888291 0.0
1 122 -98.1194077 -85.0113983 0.0
1 123 -95.7095185 -83.5753174 0.0
1 124 -95.701561 -85.0241547 0.0
1 125 -93.261528 -83.6280136 0.0
1 126 -93.2175369 -85.0491104 0.0
1 127 -90.7743988 -83.6303025 0.0
1 128 -90.760231 -85.0089874 0.0
1 129 -88.3057099 -83.6327896 0.0
1 130 -88.309166 -85.0061111 0.0
1 131 -85.8197403 -83.6528626 0.0
1 132 -85.8780976 -85.0070572 0.0
1 133 -83.4242325 -83.6604233 0.0
1 134 -83.4421845 -85.0287781 0.0
1 135 -80.9136658 -83.6579361 0.0
1 136 -80.8939286 -85.0673904 0.0
1 137 -78.4488831 -83.7038803 0.0
1 138 -78.5110398 -85.1405411 0.0
1 139 -76.0695648 -83.6040879 0.0
1 140 -76.087883 -85.0720825 0.0
1 141 -96.856453 -81.4477005 0.0
1 142 -96.945839 -82.8770218 0.0
1 143 -94.4432755 -81.4496002 0.0
1 144 -94.4535523 -82.8831636 0.0
1 145 -91.9647598 -81.5273972 0.0
1 146 -92.0294724 -82.9711914 0.0
1 147 -89.5398102 -81.4940796 0.0
1 148 -89.5271225 -82.9612046 0.0
1 149 -87.1004486 -81.5581589 0.0
1 150 -87.039299 -82.9701996 0.0
1 151 -84.6038132 -81.5814057 0.0
1 152 -84.6224289 -82.9027328 0.0
1 153 -82.1780014 -81.5375748 0.0
1 154 -82.1613846 -82.9547958 0.0
1 155 -79.6243363 -81.5662995 0.0
1 156 -79.685112 -83.0184097 0.0
1 157 -77.2127762 -81.5370484 0.0
1 158 -77.2838593 -82.9057084 0.0
1 159 -74.7955094 -81.5116883 0.0
1 160 -74.7906037 -82.947403 0.0
1 161 -98.1296387 -79.3829041 0.0
1 162 -98.1209335 -80.7987213 0.0
1 163 -95.6889267 -79.3617478 0.0
1 164 -95.6569214 -80.7880707 0.0
1 165 -93.1357575 -79.4180145 0.0
1 166 -93.2065811 -80.8297272 0.0
1 167 -90.7501145 -79.384697 0.0
1 168 -90.7661286 -80.7812882 0.0
1 169 -88.3178101 -79.4241028 0.0
1 170 -88.3120117 -80.8107529 0.0
1 171 -85.843094 -79.410492 0.0
1 172 -85.838913 -80.8749162 0.0
1 173 -83.385231 -79.4320679 0.0
1 174 -83.4304962 -80.8176728 0.0
1 175 -80.914856 -79.4450379 0.0
1 176 -80.9236756 -80.8261566 0.0
1 177 -78.4664383 -79.3857269 0.0
1 178 -78.42202 -80.7877426 0.0
1 179 -75.9572296 -79.4516602 0.0
1 180 -75.993477 -80.8153916 0.0
1 181 -96.878006 -77.2541886 0.0
1 182 -96.8555146 -78.6726609 0.0
1 183 -94.3829041 -77.2398758 0.0
1 184 -94.3857117 -78.6799698 0.0
1 185 -91.9814988 -77.2660904 0.0
1 186 -91.9525376 -78.6966019 0.0
1 187 -89.5231323 -77.2883911 0.0
1 188 -89.5285874 -78.6842423 0.0
1 189 -87.079361 -77.2707443 0.0
1 190 -87.1039429 -78.7378998 0.0
1 191 -84.6601944 -77.3132172 0.0
1 192 -84.6436386 -78.7632218 0.0
1 193 -82.1849213 -77.3018875 0.0
1 194 -82.1551743 -78.7533493 0.0
1 195 -79.7603302 -77.2519837 0.0
1 196 -79.6817475 -78.6792755 0.0
1 197 -77.2992172 -77.3208847 0.0
1 198 -77.1884232 -78.6977692 0.0
1 199 -74.8226853 -77.2990036 0.0
1 200 -74.7837067 -78.7030335 0.0
1 201 -98.2159805 -75.1038361 0.0
1 202 -98.1219025 -76.6009751 0.0
1 203 -95.7421265 -75.1042633 0.0
1 204 -95.6355286 -76.516388 0.0
1 205 -93.2226105 -75.0974579 0.0
1 206 -93.1855545 -76.4977494 0.0
1 207 -90.8017884 -75.0840149 0.0
1 208 -90.7518845 -76.5052719 0.0
1 209 -88.340683 -75.0899811 0.0
1 210 -88.2911759 -76.5738449 0.0
1 211 -85.8433 -75.1572189 0.0
1 212 -85.8669128 -76.6066895 0.0
1 213 -83.4763947 -75.1386948 0.0
1 214 -83.4844437 -76.5856858 0.0
1 215 -80.9817048 -75.166214 0.0
1 216 -80.9969788 -76.6008148 0.0
1 217 -78.4421921 -75.2203598 0.0
1 218 -78.5070343 -76.6054459 0.0
1 219 -76.0617371 -75.1923752 0.0
1 220 -76.0873795 -76.6160279 0.0
1 221 -96.9957886 -72.9994888 0.0
1 222 -97.0288315 -74.412674 0.0
1 223 -94.4971161 -72.9560472 0.0
1 224 -94.4925614 -74.3716583 0.0
1 225 -92.0368423 -72.9931794 0.0
1 226 -91.9725038 -74.4351883 0.0
1 227 -89.5860138 -72.9406204 0.0
1 228 -89.5857697 -74.376358 0.0
1 229 -87.046402 -72.9749832 0.0
1 230 -87.069603 -74.454834 0.0
1 231 -84.6565628 -72.970337 0.0
1 232 -84.678093 -74.3746719 0.0
1 233 -82.2303238 -73.0049286 0.0
1 234 -82.214119 -74.5010681 0.0
1 235 -79.7112122 -73.1345596 0.0
1 236 -79.7352066 -74.5457917 0.0
1 237 -77.2315369 -72.96447 0.0
1 238 -77.2296829 -74.4401322 0.0
1 239 -74.843689 -72.9751512 0.0
1 240 -74.7915192 -74.4283142 0.0
1 241 -98.2078934 -70.857895 0.0
1 242 -98.2615509 -72.3232269 0.0
1 243 -95.7966004 -70.8957596 0.0
1 244 -95.7588959 -72.3135452 0.0
1 245 -93.290329 -70.868248 0.0
1 246 -93.2478485 -72.2607575 0.0
1 247 -90.7784043 -70.8273926 0.0
1 248 -90.7941132 -72.2679443 0.0
1 249 -88.3314667 -70.8915482 0.0
1 250 -88.3368607 -72.2972565 0.0
1 251 -85.901207 -70.89814 0.0
1 252 -85.8679734 -72.3081284 0.0
1 253 -83.3942948 -70.8857956 0.0
1 254 -83.4420929 -72.3429489 0.0
1 255 -80.9578476 -70.941147 0.0
1 256 -80.9562454 -72.358635 0.0
1 257 -78.5333176 -70.942505 0.0
1 258 -78.5002289 -72.3335724 0.0
1 259 -76.1438904 -70.8492204 0.0
1 260 -76.0473022 -72.2567749 0.0
1 261 -96.99852 -68.803566 0.0
1 262 -97.0004272 -70.2132645 0.0
1 263 -94.5295944 -68.8185654 0.0
1 264 -94.5070038 -70.1962814 0.0
1 265 -92.1064377 -68.7931671 0.0
1 266 -92.0643311 -70.179718 0.0
1 267 -89.5841599 -68.823555 0.0
1 268 -89.5653839 -70.2193833 0.0
1 269 -87.0523682 -68.8161469 0.0
1 270 -87.0926514 -70.2208252 0.0
1 271 -84.6659699 -68.8281403 0.0
1 272 -84.6423416 -70.2128449 0.0
1 273 -82.178009 -68.8202591 0.0
1 274 -82.1760559 -70.229866 0.0
1 275 -79.7710495 -68.8551866 0.0
1 276 -79.7386017 -70.2401734 0.0
1 277 -77.3963394 -68.7549286 0.0
1 278 -77.3360596 -70.1692963 0.0
1 279 -74.9786378 -68.7669297 0.0
1 280 -74.879364 -70.1426468 0.0
1 281 -98.1631241 -66.6426697 0.0
1 282 -98.2191162 -68.0444031 0.0
1 283 -95.7716446 -66.6956558 0.0
1 284 -95.7102814 -68.0962753 0.0
1 285 -93.3267059 -66.7289658 0.0
1 286 -93.3404846 -68.1469498 0.0
1 287 -90.8341828 -66.7186966 0.0
1 288 -90.8263779 -68.1254196 0.0
1 289 -88.3540115 -66.7483826 0.0
1 290 -88.3239441 -68.1601029 0.0
1 291 -85.9010316 -66.642273 0.0
1 292 -85.8824692 -68.0800552 0.0
1 293 -83.4193344 -66.6428299 0.0
1 294 -83.4880982 -68.12146 0.0
1 295 -81.0246048 -66.6498184 0.0
1 296 -80.9284592 -68.1157761 0.0
1 297 -78.6399536 -66.6517258 0.0
1 298 -78.5977173 -68.0821381 0.0
1 299 -76.1112366 -66.6266938 0.0
1 300 -76.1839676 -68.0255737 0.0
1 301 -96.9449234 -65.9990388 0.0
1 302 -94.5168228 -65.9998856 0.0
1 311 -96.9745026 -64.5942917 0.0
1 312 -94.544014 -64.6338349 0.0
1 313 -92.0902634 -64.5865555 0.0
1 314 -89.5954285 -64.6130905 0.0
1 315 -87.1030808 -64.5745774 0.0
1 316 -84.7036591 -64.525322 0.0
1 317 -82.2151642 -64.5575562 0.0
1 318 -79.7703247 -64.5701828 0.0
1 319 -77.3784256 -64.5070648 0.0
1 320 -74.8961792 -64.5517884 0.0
1 321 -98.1757202 -62.4375038 0.0
1 322 -98.1287079 -63.8493386 0.0
1 323 -95.7362137 -62.5292053 0.0
1 324 -95.7496491 -63.9307748 0.0
1 325 -93.3019791 -62.4923783 0.0
1 326 -93.3458023 -63.8808708 0.0
1 327 -90.8871156 -62.5076027 0.0
1 328 -90.8884278 -63.9044 0.0
1 329 -88.3813782 -62.4958077 0.0
1 330 -88.3855896 -63.888836 0.0
1 331 -85.886467 -62.3535309 0.0
1 332 -85.9064178 -63.7626267 0.0
1 333 -83.4042282 -62.4186592 0.0
1 334 -83.4887543 -63.8824006 0.0
1 335 -81.0287094 -62.4345284 0.0
1 336 -80.9898606 -63.8183785 0.0
1 337 -78.602211 -62.382 0.0
1 338 -78.5575867 -63.8516426 0.0
1 339 -76.1285477 -62.5171318 0.0
1 340 -76.0932465 -63.8861694 0.0
1 341 -96.9224778 -60.3412514 0.0
1 342 -96.946869 -61.7326851 0.0
1 343 -94.5505677 -60.3942452 0.0
1 344 -94.4876557 -61.8249398 0.0
1 345 -92.0218506 -60.4227753 0.0
1 346 -92.1038895 -61.8106842 0.0
1 347 -89.5493698 -60.4302445 0.0
1 348 -89.5757523 -61.8235741 0.0
1 349 -87.1186905 -60.3096047 0.0
1 350 -87.1323853 -61.7643471 0.0
1 351 -84.7113495 -60.2692261 0.0
1 352 -84.6586991 -61.682972 0.0
1 353 -82.2841187 -60.2269974 0.0
1 354 -82.2324524 -61.6473198 0.0
1 355 -79.8260498 -60.235939 0.0
1 356 -79.827652 -61.7407189 0.0
1 357 -77.3622055 -60.279995 0.0
1 358 -77.3439102 -61.6780663 0.0
1 359 -74.9634018 -60.2696228 0.0
1 360 -74.9642258 -61.7393494 0.0
1 361 -98.1955414 -58.1739845 0.0
1 362 -98.1756058 -59.5877457 0.0
1 363 -95.7503968 -58.216423 0.0
1 364 -95.6992798 -59.5939369 0.0
1 365 -93.2853089 -58.2767372 0.0
1 366 -93.3262253 -59.6820603 0.0
1 367 -90.7310181 -58.2173615 0.0
1 368 -90.8003083 -59.6574745 0.0
1 369 -88.3583603 -58.2557335 0.0
1 370 -88.3819122 -59.6467552 0.0
1 371 -85.9653474 -58.1405335 0.0
1 372 -85.9268646 -59.5599518 0.0
1 373 -83.516594 -58.0911255 0.0
1 374 -83.4932328 -59.5146561 0.0
1 375 -81.0358582 -58.147213 0.0
1 376 -81.0349808 -59.4990196 0.0
1 377 -78.5547333 -58.1844025 0.0
1 378 -78.5676804 -59.5987168 0.0
1 379 -76.1228256 -58.140213 0.0
1 380 -76.1730499 -59.5387383 0.0
1 381 -96.9185562 -56.078846 0.0
1 382 -96.962204 -57.460434 0.0
1 383 -94.4658203 -56.0588913 0.0
1 384 -94.4831314 -57.5314446 0.0
1 385 -92.1105347 -56.1661568 0.0
1 386 -92.081604 -57.5748673 0.0
1 387 -89.6088333 -56.0163574 0.0
1 388 -89.5651322 -57.4333534 0.0
1 389 -87.1886673 -56.0189743 0.0
1 390 -87.1905365 -57.465931 0.0
1 391 -84.7474289 -56.030983 0.0
1 392 -84.7874985 -57.4191055 0.0
1 393 -82.2515259 -56.0414658 0.0
1 394 -82.264328 -57.4694901 0.0
1 395 -79.7987137 -55.9942894 0.0
1 396 -79.8418274 -57.4282151 0.0
1 397 -77.3177338 -56.0374641 0.0
1 398 -77.3321915 -57.4867783 0.0
1 399 -74.8802186 -56.0410347 0.0
1 400 -74.8616028 -57.4653168 0.0
1 401 -98.1431351 -53.9832002 0.0
1 402 -98.1723328 -55.3874359 0.0
1 403 -95.7428818 -53.9931564 0.0
1 404 -95.6793823 -55.3755455 0.0
1 405 -93.3331375 -53.9692726 0.0
1 406 -93.2831574 -55.3814392 0.0
1 407 -90.8113861 -53.9935722 0.0
1 408 -90.9302826 -55.4397583 0.0
1 409 -88.3726502 -53.893467 0.0
1 410 -88.4016342 -55.3075752 0.0
1 411 -85.9276506 -53.9003106 0.0
1 412 -85.963913 -55.3586922 0.0
1 413 -83.4910584 -53.932045 0.0
1 414 -83.5405731 -55.3411865 0.0
1 415 -81.0312347 -53.9228784 0.0
1 416 -81.0342178 -55.3566246 0.0
1 417 -78.6031571 -53.832386 0.0
1 418 -78.5603562 -55.2783356 0.0
1 419 -76.1792221 -53.960701 0.0
1 420 -76.0928192 -55.3116951 0.0
1 421 -96.993515 -51.9150086 0.0
1 422 -96.9615936 -53.328785 0.0
1 423 -94.5185929 -51.8765336 0.0
1 424 -94.5353699 -53.2866287 0.0
1 425 -92.0619431 -51.8309288 0.0
1 426 -92.0819092 -53.2607956 0.0
1 427 -89.615921 -51.8807984 0.0
1 428 -89.6047974 -53.2572403 0.0
1 429 -87.2159348 -51.7524758 0.0
1 430 -87.1977539 -53.177536 0.0
1 431 -84.753624 -51.7693901 0.0
1 432 -84.7268296 -53.2131767 0.0
1 433 -82.2678833 -51.8008766 0.0
1 434 -82.281868 -53.2135124 0.0
1 435 -79.7703781 -51.7578011 0.0
1 436 -79.8253861 -53.1635819 0.0
1 437 -77.2767868 -51.780983 0.0
1 438 -77.3664551 -53.1922989 0.0
1 439 -74.8915254 -51.8569032 0.0
1 440 -74.89711 -53.2492981 0.0
1 441 -98.1766586 -49.6329613 0.0
1 442 -98.1135712 -51.1185455 0.0
1 443 -95.7377396 -49.6690445 0.0
1 444 -95.7906876 -51.1834679 0.0
1 445 -93.2796021 -49.6751862 0.0
1 446 -93.308281 -51.1164665 0.0
1 447 -90.7668305 -49.7579232 0.0
1 448 -90.8453828 -51.1568947 0.0
1 449 -88.3530121 -49.6795731 0.0
1 450 -88.3854828 -51.0815697 0.0
1 451 -85.9753648 -49.655159 0.0
1 452 -85.9923248 -51.0388031 0.0
1 453 -83.5207596 -49.722023 0.0
1 454 -83.4736252 -51.1299248 0.0
1 455 -81.0543442 -49.7270699 0.0
1 456 -81.0192184 -51.0752831 0.0
1 457 -78.5412216 -49.6809731 0.0
1 458 -78.5126801 -51.0880585 0.0
1 459 -76.1360092 -49.6577454 0.0
1 460 -76.0780487 -51.0812302 0.0
1 461 -96.9416352 -47.6132698 0.0
1 462 -96.9416656 -49.0069504 0.0
1 463 -94.4439087 -47.5810242 0.0
1 464 -94.5372544 -48.9317932 0.0
1 465 -92.0269241 -47.5629158 0.0
1 466 -92.0021133 -49.0110817 0.0
1 467 -89.6378937 -47.5662232 0.0
1 468 -89.5796891 -48.9556618 0.0
1 469 -87.1693039 -47.5613442 0.0
1 470 -87.1421738 -48.9447328 0.0
1 471 -84.7381897 -47.5832367 0.0
1 472 -84.7207642 -48.9759522 0.0
1 473 -82.2686005 -47.5550003 0.0
1 474 -82.2307282 -49.0164604 0.0
1 475 -79.7863159 -47.5893059 0.0
1 476 -79.7942505 -49.0234833 0.0
1 477 -77.3268662 -47.5422669 0.0
1 478 -77.316452 -48.9607316 0.0
1 479 -74.9300462 -47.5273247 0.0
1 480 -74.9540788 -48.968464 0.0
1 481 -98.1284103 -45.4434853 0.0
1 482 -98.1765213 -46.880394 0.0
1 483 -95.6938782 -45.4936943 0.0
1 484 -95.7225189 -46.9097138 0.0
1 485 -93.2934647 -45.468029 0.0
1 486 -93.2429657 -46.845005 0.0
1 487 -90.7863999 -45.461956 0.0
1 488 -90.8539886 -46.8869668 0.0
1 489 -88.3319931 -45.4398766 0.0
1 490 -88.3759003 -46.846611 0.0
1 491 -85.910431 -45.4424629 0.0
1 492 -85.899147 -46.8548698 0.0
1 493 -83.3913956 -45.4282379 0.0
1 494 -83.4576569 -46.8429794 0.0
1 495 -80.9851762 -45.3826523 0.0
1 496 -81.0291672 -46.8119393 0.0
1 497 -78.5392227 -45.410717 0.0
1 498 -78.5487366 -46.8021202 0.0
1 499 -76.0793915 -45.4240914 0.0
1 500 -76.1198654 -46.82333 0.0
1 501 -96.929245 -43.3833885 0.0
1 502 -96.9085084 -44.7919121 0.0
1 503 -94.5393372 -43.3577004 0.0
1 504 -94.4988785 -44.7482376 0.0
1 505 -92.0105057 -43.3238983 0.0
1 506 -92.0087051 -44.7919388 0.0
1 507 -89.5119629 -43.3294869 0.0
1 508 -89.5485688 -44.7374764 0.0
1 509 -87.1228867 -43.3508186 0.0
1 510 -87.0794907 -44.756691 0.0
1 511 -84.6770783 -43.3354912 0.0
1 512 -84.6416321 -44.7799378 0.0
1 513 -82.2958603 -43.230938 0.0
1 514 -82.218132 -44.6951828 0.0
1 515 -79.8294907 -43.2655754 0.0
1 516 -79.7450257 -44.7029686 0.0
1 517 -77.3809052 -43.3036156 0.0
1 518 -77.3536759 -44.7014199 0.0
1 519 -74.892769 -43.3516731 0.0
1 520 -74.8510514 -44.7346382 0.0
1 521 -98.2240067 -41.2091408 0.0
1 522 -98.1635208 -42.6310692 0.0
1 523 -95.7689591 -41.1833229 0.0
1 524 -95.7391815 -42.6121598 0.0
1 525 -93.2961502 -41.2227631 0.0
1 526 -93.2401352 -42.6778984 0.0
1 527 -90.8024063 -41.1983948 0.0
1 528 -90.799942 -42.6469498 0.0
1 529 -88.4290772 -41.1402893 0.0
1 530 -88.3659439 -42.5979882 0.0
1 531 -85.889267 -41.2531433 0.0
1 532 -85.9132614 -42.6847229 0.0
1 533 -83.5046387 -41.1797447 0.0
1 534 -83.5063019 -42.5716934 0.0
1 535 -81.1005325 -41.2022286 0.0
1 536 -81.0861359 -42.5392647 0.0
1 537 -78.5582047 -41.1979637 0.0
1 538 -78.5861511 -42.5965386 0.0
1 539 -76.1376495 -41.1848068 0.0
1 540 -76.1175919 -42.5742302 0.0
1 541 -97.0596695 -39.0515633 0.0
1 542 -97.0051804 -40.4726296 0.0
1 543 -94.4863129 -39.1458931 0.0
1 544 -94.5337982 -40.5523873 0.0
1 545 -92.0790558 -39.0242691 0.0
1 546 -92.0709839 -40.4715538 0.0
1 547 -89.5951462 -38.9770546 0.0
1 548 -89.6015702 -40.3928566 0.0
1 549 -87.1947327 -39.0715179 0.0
1 550 -87.1778412 -40.4962006 0.0
1 551 -84.7321472 -39.0225372 0.0
1 552 -84.7217484 -40.4633217 0.0
1 553 -82.289093 -39.0673332 0.0
1 554 -82.2659378 -40.5037346 0.0
1 555 -79.8503876 -39.0877953 0.0
1 556 -79.8029404 -40.4924546 0.0
1 557 -77.4046784 -39.0165558 0.0
1 558 -77.3635178 -40.4484253 0.0
1 559 -74.9379578 -39.0662956 0.0
1 560 -74.9058304 -40.4747353 0.0
1 561 -98.2248459 -36.9335404 0.0
1 562 -98.2771607 -38.3632927 0.0
1 563 -95.7164536 -37.0164871 0.0
1 564 -95.7698059 -38.4364052 0.0
1 565 -93.2637177 -36.9199944 0.0
1 566 -93.3033905 -38.3409157 0.0
1 567 -90.8290634 -36.9269218 0.0
1 568 -90.8296051 -38.3146591 0.0
1 569 -88.3876267 -36.948494 0.0
1 570 -88.3388138 -38.33107 0.0
1 571 -85.9566194 -36.9380722 0.0
1 572 -85.9945832 -38.3191605 0.0
1 573 -83.4968949 -36.9098816 0.0
1 574 -83.4956818 -38.3222618 0.0
1 575 -81.0677185 -36.9627724 0.0
1 576 -81.050209 -38.4053078 0.0
1 577 -78.6143418 -36.9540596 0.0
1 578 -78.6418152 -38.3543015 0.0
1 579 -76.1523438 -36.9075624 0.0
1 580 -76.1670685 -38.3612824 0.0
1 581 -96.985283 -34.7809677 0.0
1 582 -97.0045319 -36.2803841 0.0
1 583 -94.5006562 -34.7703934 0.0
1 584 -94.5051651 -36.2607079 0.0
1 585 -92.0952072 -34.8102265 0.0
1 586 -92.0758057 -36.2316322 0.0
1 587 -89.6724015 -34.8298645 0.0
1 588 -89.6481171 -36.246521 0.0
1 589 -87.1925507 -34.8066864 0.0
1 590 -87.1543045 -36.23135 0.0
1 591 -84.785141 -34.8348084 0.0
1 592 -84.715683 -36.2610283 0.0
1 593 -82.2785645 -34.7927475 0.0
1 594 -82.2474136 -36.2151489 0.0
1 595 -79.8439942 -34.8133774 0.0
1 596 -79.8674698 -36.258255 0.0
1 597 -77.4053269 -34.8717422 0.0
1 598 -77.4101715 -36.2669602 0.0
1 599 -74.9029388 -34.850174 0.0
1 600 -74.8816148 -36.2184067 0.0
1 601 -98.2125321 -34.0803909 0.0
1 602 -95.7626724 -34.128376 0.0
1 603 -93.3086243 -34.1297226 0.0
1 604 -90.8975296 -34.0986252 0.0
1 605 -88.4218216 -34.0906792 0.0
1 606 -85.9668962 -34.1141968 0.0
1 607 -83.5324021 -34.115406 0.0
1 608 -81.0567932 -34.080265 0.0
1 609 -78.6338654 -34.1333046 0.0
1 610 -76.1842804 -34.1719284 0.0
1 920 -74.8932114 -2.3204312 0.0
1 919 -74.8548508 -0.9674636 0.0
1 918 -77.3139877 -2.3226297 0.0
1 917 -77.322052 -0.95401 0.0
1 916 -79.7691956 -2.3826468 0.0
1 616 -86.0159607 -32.6483193 0.0
1 617 -83.5991669 -32.7019348 0.0
1 618 -81.0927048 -32.675705 0.0
1 619 -78.6208191 -32.7198334 0.0
1 915 -79.7644425 -0.9595644 0.0
1 621 -97.0611801 -30.5614224 0.0
1 622 -96.9849472 -31.9950658 0.0
1 623 -94.5257492 -30.590044 0.0
1 624 -94.5767517 -31.9948102 0.0
1 625 -92.0747604 -30.5418549 0.0
1 626 -92.1579514 -32.0013504 0.0
1 627 -89.5972367 -30.5581875 0.0
1 628 -89.7022019 -31.9699384 0.0
1 629 -87.1396179 -30.5397091 0.0
1 630 -87.2000046 -31.951336 0.0
1 631 -84.7259903 -30.5729561 0.0
1 632 -84.7873688 -31.9828626 0.0
1 633 -82.2856217 -30.5915451 0.0
1 634 -82.3636932 -32.0260963 0.0
1 635 -79.8340607 -30.60985 0.0
1 636 -79.7939911 -31.9870434 0.0
1 637 -77.3312836 -30.5898953 0.0
1 638 -77.4050751 -32.0238533 0.0
1 639 -74.9474106 -30.5337792 0.0
1 640 -74.931244 -32.0627785 0.0
1 641 -98.2230072 -28.4150581 0.0
1 642 -98.1833191 -29.853386 0.0
1 643 -95.7331162 -28.4433441 0.0
1 644 -95.7833863 -29.8630086 0.0
1 645 -93.2769394 -28.5711499 0.0
1 646 -93.3033753 -29.9414272 0.0
1 647 -90.8345185 -28.4748192 0.0
1 648 -90.8213043 -29.8847238 0.0
1 649 -88.4545441 -28.5052376 0.0
1 650 -88.4038773 -29.9008218 0.0
1 651 -86.0048218 -28.4555435 0.0
1 652 -85.9255372 -29.848547 0.0
1 653 -83.515564 -28.4560128 0.0
1 654 -83.4883652 -29.8471356 0.0
1 655 -81.1333466 -28.4392567 0.0
1 656 -81.0035553 -29.897379 0.0
1 657 -78.6390915 -28.4219189 0.0
1 658 -78.6053696 -29.8513242 0.0
1 659 -76.1357346 -28.4720497 0.0
1 660 -76.1311569 -29.8505688 0.0
1 661 -96.904274 -26.3446083 0.0
1 662 -96.9195786 -27.795559 0.0
1 663 -94.5149536 -26.3721409 0.0
1 664 -94.495636 -27.8399544 0.0
1 665 -92.1579056 -26.4345112 0.0
1 666 -92.0761642 -27.8430768 0.0
1 667 -89.657692 -26.3618164 0.0
1 668 -89.6403885 -27.7806034 0.0
1 669 -87.2153244 -26.3689041 0.0
1 670 -87.2569809 -27.767376 0.0
1 671 -84.6944657 -26.3393154 0.0
1 672 -84.7103806 -27.7385826 0.0
1 673 -82.2758713 -26.3452492 0.0
1 674 -82.3363495 -27.7278309 0.0
1 675 -79.8734132 -26.3297882 0.0
1 676 -79.9080812 -27.7327862 0.0
1 677 -77.3560867 -26.3858929 0.0
1 678 -77.3698197 -27.7988682 0.0
1 679 -74.9916612 -26.2678261 0.0
1 680 -74.9519272 -27.7264633 0.0
1 681 -98.1411133 -24.2617493 0.0
1 682 -98.1130219 -25.7250309 0.0
1 683 -95.765503 -24.29982 0.0
1 684 -95.7125244 -25.7103729 0.0
1 685 -93.4087067 -24.279274 0.0
1 686 -93.3222046 -25.6541767 0.0
1 687 -90.9870834 -24.2728405 0.0
1 688 -90.9193878 -25.6689301 0.0
1 689 -88.4158325 -24.2448311 0.0
1 690 -88.4231949 -25.6535111 0.0
1 691 -85.9884262 -24.2843552 0.0
1 692 -86.0042496 -25.6575203 0.0
1 693 -83.4770966 -24.2442646 0.0
1 694 -83.5218582 -25.6253319 0.0
1 695 -81.0994873 -24.2327328 0.0
1 696 -81.1233292 -25.6146508 0.0
1 697 -78.6526337 -24.2572994 0.0
1 698 -78.6128083 -25.72221 0.0
1 699 -76.2076187 -24.2052193 0.0
1 700 -76.2267456 -25.5978756 0.0
1 701 -96.9443818 -22.1596012 0.0
1 702 -96.9085618 -23.5292759 0.0
1 703 -94.5008011 -22.1706886 0.0
1 704 -94.5732727 -23.549984 0.0
1 705 -92.116066 -22.1088734 0.0
1 706 -92.1972275 -23.5406742 0.0
1 707 -89.6842575 -22.2134571 0.0
1 708 -89.7042694 -23.5873757 0.0
1 709 -87.1966019 -22.1130219 0.0
1 710 -87.1927261 -23.543829 0.0
1 711 -84.7478256 -22.1163578 0.0
1 712 -84.7428284 -23.5401535 0.0
1 713 -82.2735748 -22.1302986 0.0
1 714 -82.3184509 -23.547493 0.0
1 715 -79.8530656 -22.1234169 0.0
1 716 -79.8994598 -23.5374432 0.0
1 717 -77.3757858 -22.1751919 0.0
1 718 -77.4359284 -23.5196247 0.0
1 719 -74.9347688 -22.1684189 0.0
1 720 -74.962677 -23.5483895 0.0
1 721 -98.1653671 -19.9443494 0.0
1 722 -98.1727219 -21.4033203 0.0
1 723 -95.6350632 -20.0317192 0.0
1 724 -95.6782608 -21.4468174 0.0
1 725 -93.2094498 -20.0060978 0.0
1 726 -93.3054581 -21.4175968 0.0
1 727 -90.8454972 -20.079771 0.0
1 728 -90.9007874 -21.4860707 0.0
1 729 -88.4111939 -20.0322323 0.0
1 730 -88.4402466 -21.4490471 0.0
1 731 -85.9565354 -19.924925 0.0
1 732 -85.9235688 -21.3643189 0.0
1 733 -83.4692688 -20.0284576 0.0
1 734 -83.498085 -21.3926659 0.0
1 735 -81.0456772 -20.0013943 0.0
1 736 -81.0350189 -21.4063549 0.0
1 737 -78.5909424 -20.0138264 0.0
1 738 -78.5690232 -21.4203148 0.0
1 739 -76.1368408 -20.0415554 0.0
1 740 -76.1343994 -21.4598427 0.0
1 741 -96.8728638 -17.9302254 0.0
1 742 -96.8941728 -19.3151283 0.0
1 743 -94.4807205 -17.8865644 0.0
1 744 -94.4407273 -19.3059788 0.0
1 745 -92.0570602 -17.9081708 0.0
1 746 -92.0028687 -19.3134766 0.0
1 747 -89.5301667 -17.8988362 0.0
1 748 -89.6005478 -19.3298798 0.0
1 749 -87.1312866 -17.9007608 0.0
1 750 -87.1735687 -19.2681828 0.0
1 751 -84.6685257 -17.8894692 0.0
1 752 -84.6717682 -19.3103466 0.0
1 753 -82.1849289 -17.828497 0.0
1 754 -82.3244858 -19.2475605 0.0
1 755 -79.7421112 -17.87068 0.0
1 756 -79.8474656 -19.257925 0.0
1 757 -77.4242935 -17.910183 0.0
1 758 -77.3982849 -19.3151112 0.0
1 759 -75.0028915 -17.918869 0.0
1 760 -74.9118348 -19.35215 0.0
1 761 -98.1855469 -15.8260746 0.0
1 762 -98.1578827 -17.2405586 0.0
1 763 -95.707779 -15.7710934 0.0
1 764 -95.6895905 -17.1741448 0.0
1 765 -93.2322998 -15.7698117 0.0
1 766 -93.2888794 -17.1714268 0.0
1 767 -90.737114 -15.7775574 0.0
1 768 -90.8043442 -17.1967068 0.0
1 769 -88.3711472 -15.7602053 0.0
1 770 -88.2735901 -17.1828919 0.0
1 771 -85.918335 -15.7580376 0.0
1 772 -85.9114838 -17.2123337 0.0
1 773 -83.5018692 -15.7141609 0.0
1 774 -83.4631958 -17.1198063 0.0
1 775 -80.9711686 -15.8229132 0.0
1 776 -80.9678346 -17.2115078 0.0
1 777 -78.5553131 -15.7685786 0.0
1 778 -78.57267 -17.1598129 0.0
1 779 -76.1203308 -15.7967415 0.0
1 780 -76.1725235 -17.1961803 0.0
1 781 -96.929062 -13.7140217 0.0
1 782 -96.9598846 -15.1364555 0.0
1 783 -94.4791641 -13.672698 0.0
1 784 -94.4353256 -15.0526304 0.0
1 785 -91.9901506 -13.599596 0.0
1 786 -92.030365 -15.0402966 0.0
1 787 -89.547554 -13.6523867 0.0
1 788 -89.5507736 -15.0190163 0.0
1 789 -87.0888214 -13.6639729 0.0
1 790 -87.15271 -15.045063 0.0
1 791 -84.7254029 -13.6064167 0.0
1 792 -84.717598 -15.030715 0.0
1 793 -82.26577 -13.6629 0.0
1 794 -82.1800537 -15.0797796 0.0
1 795 -79.7668839 -13.6636448 0.0
1 796 -79.7489853 -15.098073 0.0
1 797 -77.3395386 -13.6579733 0.0
1 798 -77.3394318 -15.0269747 0.0
1 799 -74.9437104 -13.6119929 0.0
1 800 -74.914116 -15.0225115 0.0
1 801 -98.1326218 -11.5672951 0.0
1 802 -98.1323242 -13.0019112 0.0
1 803 -95.662674 -11.5446339 0.0
1 804 -95.7461624 -13.0047989 0.0
1 805 -93.2020874 -11.5452929 0.0
1 806 -93.2649994 -12.9575958 0.0
1 807 -90.7942124 -11.520011 0.0
1 808 -90.7923432 -12.9253092 0.0
1 809 -88.3433533 -11.5359459 0.0
1 810 -88.3442001 -12.9322082 0.0
1 811 -85.934578 -11.4821024 0.0
1 812 -85.9323578 -12.8915834 0.0
1 813 -83.4669113 -11.4834957 0.0
1 814 -83.4608536 -12.9058724 0.0
1 815 -80.976349 -11.5351591 0.0
1 816 -80.9999084 -13.002224 0.0
1 817 -78.5303116 -11.5237179 0.0
1 818 -78.5682678 -12.9447452 0.0
1 819 -76.0692062 -11.5383311 0.0
1 820 -76.0968246 -12.955083 0.0
1 821 -96.8640214 -9.3985872 0.0
1 822 -96.8899002 -10.8224669 0.0
1 823 -94.4570389 -9.3883639 0.0
1 824 -94.4223404 -10.8473216 0.0
1 825 -92.0237198 -9.3265371 0.0
1 826 -92.0389175 -10.7316389 0.0
1 827 -89.577919 -9.3598738 0.0
1 828 -89.5310135 -10.8301745 0.0
1 829 -87.0980759 -9.4728813 0.0
1 830 -87.1232758 -10.7787113 0.0
1 831 -84.6792832 -9.4013939 0.0
1 832 -84.6800308 -10.7972985 0.0
1 833 -82.2666779 -9.3715592 0.0
1 834 -82.2546234 -10.7649451 0.0
1 835 -79.7755738 -9.385273 0.0
1 836 -79.7756729 -10.7703047 0.0
1 837 -77.2961578 -9.42066 0.0
1 838 -77.2900467 -10.8000994 0.0
1 839 -74.8560334 -9.3493729 0.0
1 840 -74.8451614 -10.7331782 0.0
1 841 -98.0978165 -7.2266045 0.0
1 842 -98.0522308 -8.6412363 0.0
1 843 -95.6588593 -7.2537356 0.0
1 844 -95.6945191 -8.7013188 0.0
1 845 -93.2458878 -7.210218 0.0
1 846 -93.2623367 -8.6241455 0.0
1 847 -90.8073426 -7.282433 0.0
1 848 -90.7768097 -8.690712 0.0
1 849 -88.3341599 -7.2763348 0.0
1 850 -88.3181 -8.7128105 0.0
1 851 -85.8962402 -7.3354507 0.0
1 852 -85.9111176 -8.7278395 0.0
1 853 -83.5017929 -7.2443862 0.0
1 854 -83.4796295 -8.6916352 0.0
1 855 -81.0175476 -7.2559176 0.0
1 856 -81.0236588 -8.6575413 0.0
1 857 -78.5229035 -7.2980199 0.0
1 858 -78.5547638 -8.7138834 0.0
1 859 -76.0757751 -7.2117915 0.0
1 860 -76.0776978 -8.6607189 0.0
1 861 -96.9340516 -5.1286068 0.0
1 862 -96.8791276 -6.5210872 0.0
1 863 -94.4218827 -5.1238246 0.0
1 864 -94.433075 -6.5759268 0.0
1 865 -92.0006714 -5.1192164 0.0
1 866 -92.0173569 -6.5545564 0.0
1 867 -89.511055 -5.1816421 0.0
1 868 -89.5074692 -6.561636 0.0
1 869 -87.1501694 -5.1816511 0.0
1 870 -87.1523056 -6.581059 0.0
1 871 -84.6853028 -5.1557002 0.0
1 872 -84.7253342 -6.5942831 0.0
1 873 -82.2695999 -5.2066093 0.0
1 874 -82.2218247 -6.6150332 0.0
1 875 -79.7232056 -5.1652885 0.0
1 876 -79.7786026 -6.5718785 0.0
1 877 -77.3652344 -5.1394591 0.0
1 878 -77.3165283 -6.5695262 0.0
1 879 -74.8761978 -5.1085129 0.0
1 880 -74.8488846 -6.5771251 0.0
1 881 -98.1547241 -2.9802608 0.0
1 882 -98.1117859 -4.3863354 0.0
1 883 -95.6855393 -3.0413613 0.0
1 884 -95.7099533 -4.4652605 0.0
1 885 -93.2522354 -3.0408683 0.0
1 886 -93.2239075 -4.4608145 0.0
1 887 -90.7740402 -3.0518472 0.0
1 888 -90.7257538 -4.4796572 0.0
1 889 -88.3190689 -2.9350086 0.0
1 890 -88.320694 -4.4034205 0.0
1 891 -85.976944 -3.0373232 0.0
1 892 -85.8991852 -4.4468179 0.0
1 893 -83.5026551 -3.035907 0.0
1 894 -83.484047 -4.4853754 0.0
1 895 -80.9932252 -3.1177399 0.0
1 896 -80.9907608 -4.5645294 0.0
1 897 -78.5363236 -3.0521004 0.0
1 898 -78.5522461 -4.4378453 0.0