ITEM: TIMESTEP
0
ITEM: NUMBER OF ATOMS
3680
ITEM: BOX BOUNDS pp pp pp
-98.4281464 -0.5718537
-97.7222748 -0.2777252
-1.0 1.0
ITEM: ATOMS id type x y z
1 1 -98.1411591 -96.3393479 0.0
310 1 -74.9188386 -65.9319916 0.0
3 1 -95.6785965 -96.3116684 0.0
309 1 -77.3668594 -65.9190292 0.0
5 1 -93.236557 -96.2599411 0.0
6 1 -93.2432404 -97.6862717 0.0
7 1 -90.7860337 -96.3042984 0.0
8 1 -90.8000641 -97.6798859 0.0
9 1 -88.3151398 -96.2959366 0.0
10 1 -88.392952 -97.6966553 0.0
11 1 -85.9491348 -96.2946396 0.0
12 1 -85.9196092 -97.7214279 0.0
13 1 -83.5266037 -96.3197022 0.0
14 1 -83.5237046 -97.714386 0.0
15 1 -80.9882202 -96.2754517 0.0
16 1 -80.9982148 -97.7182541 0.0
17 1 -78.615326 -96.2630997 0.0
18 1 -78.5779343 -97.7021103 0.0
19 1 -76.1875534 -96.2770996 0.0
308 1 -79.8171845 -65.9238434 0.0
21 1 -96.9069978 -94.2277298 0.0
22 1 -96.9372102 -95.6279602 0.0
23 1 -94.4531021 -94.1698532 0.0
24 1 -94.4586869 -95.5841065 0.0
25 1 -91.9816438 -94.15625 0.0
26 1 -91.9958878 -95.5765305 0.0
27 1 -89.5745774 -94.1842194 0.0
28 1 -89.5073014 -95.6131592 0.0
29 1 -87.1599274 -94.1867371 0.0
30 1 -87.1320496 -95.5663681 0.0
31 1 -84.7443772 -94.1750488 0.0
32 1 -84.7315979 -95.5970154 0.0
33 1 -82.2933655 -94.2118378 0.0
34 1 -82.2344513 -95.6099854 0.0
35 1 -79.8165741 -94.0970993 0.0
36 1 -79.8343964 -95.4949951 0.0
37 1 -77.3647461 -94.1205978 0.0
38 1 -77.3976288 -95.5626374 0.0
39 1 -74.9536668 -94.1486816 0.0
40 1 -74.953888 -95.5721588 0.0
41 1 -98.1615219 -92.0565033 0.0
42 1 -98.0974655 -93.4649887 0.0
43 1 -95.7205963 -92.1043701 0.0
44 1 -95.6992569 -93.5502014 0.0
45 1 -93.2469177 -92.1052322 0.0
46 1 -93.2219238 -93.4897919 0.0
47 1 -90.8134995 -92.019043 0.0
48 1 -90.7581558 -93.4512329 0.0
49 1 -88.3916245 -92.0184555 0.0
50 1 -88.4136887 -93.4274597 0.0
51 1 -85.9622498 -92.043602 0.0
52 1 -85.9629594 -93.4496384 0.0
53 1 -83.5135422 -92.0503006 0.0
54 1 -83.5058975 -93.4730072 0.0
55 1 -81.0455704 -92.0488205 0.0
56 1 -81.0219193 -93.4427414 0.0
57 1 -78.6405335 -91.9554978 0.0
58 1 -78.616066 -93.3718186 0.0
59 1 -76.1269455 -92.0478058 0.0
60 1 -76.1375427 -93.4142151 0.0
61 1 -96.9276048 -89.9381944 0.0
62 1 -96.9261246 -91.3335114 0.0
63 1 -94.4637833 -89.9442674 0.0
64 1 -94.5191345 -91.3980332 0.0
65 1 -92.0744553 -89.9299164 0.0
66 1 -92.0583191 -91.349144 0.0
67 1 -89.6161576 -89.8882524 0.0
68 1 -89.5947571 -91.3274536 0.0
69 1 -87.1275864 -89.8735428 0.0
70 1 -87.1678314 -91.2841721 0.0
71 1 -84.7231217 -89.921402 0.0
72 1 -84.7445908 -91.3493347 0.0
73 1 -82.3359604 -89.9525758 0.0
74 1 -82.313942 -91.3641586 0.0
75 1 -79.8854142 -89.8327332 0.0
76 1 -79.8879624 -91.2729035 0.0
77 1 -77.3600235 -89.8851852 0.0
78 1 -77.3614044 -91.304039 0.0
79 1 -74.9518052 -89.964325 0.0
80 1 -74.9275666 -91.331871 0.0
81 1 -98.1722641 -87.841301 0.0
82 1 -98.1255722 -89.2338257 0.0
83 1 -95.7268296 -87.7558365 0.0
84 1 -95.717331 -89.1825943 0.0
85 1 -93.2672424 -87.7376709 0.0
86 1 -93.2778778 -89.1778565 0.0
87 1 -90.8295288 -87.816864 0.0
88 1 -90.848404 -89.2477341 0.0
89 1 -88.3790665 -87.8034592 0.0
90 1 -88.3867645 -89.1980057 0.0
91 1 -85.9260178 -87.7612152 0.0
92 1 -85.9133224 -89.1989136 0.0
93 1 -83.5434418 -87.8258209 0.0
94 1 -83.5412445 -89.1911087 0.0
95 1 -81.0661316 -87.7860031 0.0
96 1 -81.1298065 -89.1762466 0.0
97 1 -78.6038666 -87.7482071 0.0
98 1 -78.6173325 -89.1624069 0.0
99 1 -76.1709671 -87.7847595 0.0
100 1 -76.1454163 -89.2061997 0.0
101 1 -96.9541702 -85.6800156 0.0
102 1 -96.9418564 -87.1218109 0.0
103 1 -94.4764176 -85.6950684 0.0
104 1 -94.4954758 -87.0942993 0.0
105 1 -92.0450821 -85.6757202 0.0
106 1 -92.065361 -87.0934677 0.0
107 1 -89.6120987 -85.6778565 0.0
108 1 -89.6563645 -87.1098023 0.0
109 1 -87.1240616 -85.6906052 0.0
110 1 -87.1787949 -87.1107254 0.0
111 1 -84.7329941 -85.6390229 0.0
112 1 -84.6951447 -87.0332184 0.0
113 1 -82.2880249 -85.6987839 0.0
114 1 -82.3199082 -87.1107483 0.0
115 1 -79.7932968 -85.6146698 0.0
116 1 -79.854355 -87.0707779 0.0
117 1 -77.3144302 -85.6801758 0.0
118 1 -77.3591309 -87.0812683 0.0
119 1 -74.8789368 -85.7466278 0.0
120 1 -74.919571 -87.1651917 0.0
121 1 -98.1232834 -83.5472412 0.0
122 1 -98.1929779 -84.9891586 0.0
123 1 -95.724617 -83.5508042 0.0
124 1 -95.7151718 -84.9774858 0.0
125 1 -93.2835388 -83.5353928 0.0
126 1 -93.2465439 -84.9507066 0.0
127 1 -90.8479614 -83.5111237 0.0
128 1 -90.7910919 -84.9687882 0.0
129 1 -88.3991165 -83.5472794 0.0
130 1 -88.3835068 -84.9549866 0.0
131 1 -85.948494 -83.560791 0.0
132 1 -85.944809 -84.973488 0.0
133 1 -83.4766846 -83.5301056 0.0
134 1 -83.465149 -84.9556198 0.0
135 1 -81.0424957 -83.5212784 0.0
136 1 -81.0371246 -84.966919 0.0
137 1 -78.5718689 -83.5456009 0.0
138 1 -78.5599137 -84.9237138 0.0
139 1 -76.1341248 -83.560791 0.0
140 1 -76.1262436 -84.9712754 0.0
141 1 -96.9135056 -81.4653778 0.0
142 1 -96.9125748 -82.8582994 0.0
143 1 -94.4752884 -81.4237213 0.0
144 1 -94.5170212 -82.8232041 0.0
145 1 -92.0218811 -81.4292145 0.0
146 1 -92.0491028 -82.8217697 0.0
147 1 -89.584198 -81.4152298 0.0
148 1 -89.6516419 -82.8555984 0.0
149 1 -87.1994019 -81.3960724 0.0
150 1 -87.165741 -82.874054 0.0
151 1 -84.6921616 -81.460228 0.0
152 1 -84.7227555 -82.8446656 0.0
153 1 -82.230011 -81.4431076 0.0
154 1 -82.2516022 -82.8467256 0.0
155 1 -79.7590714 -81.3985596 0.0
156 1 -79.7827759 -82.8272934 0.0
157 1 -77.3054047 -81.4287262 0.0
158 1 -77.3651123 -82.88266 0.0
159 1 -74.8683472 -81.4262085 0.0
160 1 -74.9432068 -82.845108 0.0
161 1 -98.0814285 -79.3420181 0.0
162 1 -98.1275101 -80.7473068 0.0
163 1 -95.6387482 -79.3503647 0.0
164 1 -95.6872483 -80.7500077 0.0
165 1 -93.1823578 -79.309494 0.0
166 1 -93.2671585 -80.7441101 0.0
167 1 -90.8265 -79.2540512 0.0
168 1 -90.8283234 -80.6634598 0.0
169 1 -88.4056931 -79.2662277 0.0
170 1 -88.4047775 -80.6826325 0.0
171 1 -85.9118118 -79.3120422 0.0
172 1 -85.9301072 -80.7358856 0.0
173 1 -83.4979172 -79.3247528 0.0
174 1 -83.4896469 -80.7446671 0.0
175 1 -81.0010376 -79.3401184 0.0
176 1 -80.9560624 -80.7628021 0.0
177 1 -78.5049896 -79.3481064 0.0
178 1 -78.5315857 -80.725296 0.0
179 1 -76.08284 -79.2527084 0.0
180 1 -76.0713882 -80.6801605 0.0
181 1 -96.9167862 -77.231369 0.0
182 1 -96.8778458 -78.6537323 0.0
183 1 -94.4872589 -77.2178192 0.0
184 1 -94.4141235 -78.6223374 0.0
185 1 -92.056778 -77.16819 0.0
186 1 -92.0378571 -78.526146 0.0
187 1 -89.6136475 -77.1663284 0.0
188 1 -89.61512 -78.5816345 0.0
189 1 -87.1697846 -77.2099075 0.0
190 1 -87.1369934 -78.6326752 0.0
191 1 -84.7182617 -77.2386093 0.0
192 1 -84.7401352 -78.6306458 0.0
193 1 -82.2423782 -77.2078781 0.0
194 1 -82.2422409 -78.6087647 0.0
195 1 -79.7558899 -77.2078629 0.0
196 1 -79.7466584 -78.5799485 0.0
197 1 -77.3009033 -77.1399994 0.0
198 1 -77.3421021 -78.6017304 0.0
199 1 -74.8843994 -77.1212387 0.0
200 1 -74.8192978 -78.5398636 0.0
201 1 -98.1407471 -75.0939941 0.0
202 1 -98.1399002 -76.5405808 0.0
203 1 -95.6667404 -75.1236191 0.0
204 1 -95.7017212 -76.5689545 0.0
205 1 -93.2763291 -75.095192 0.0
206 1 -93.2797699 -76.4713822 0.0
207 1 -90.8513336 -75.0567169 0.0
208 1 -90.8352967 -76.4766312 0.0
209 1 -88.3863983 -75.0568161 0.0
210 1 -88.4344177 -76.5041809 0.0
211 1 -85.9563294 -75.0832748 0.0
212 1 -85.9185486 -76.4963074 0.0
213 1 -83.5266953 -75.0981903 0.0
214 1 -83.5000839 -76.5431137 0.0
215 1 -81.0592423 -75.1395645 0.0
216 1 -81.0286865 -76.5296555 0.0
217 1 -78.5863266 -75.1070786 0.0
218 1 -78.5305023 -76.512146 0.0
219 1 -76.0879593 -75.0175323 0.0
220 1 -76.0955658 -76.380188 0.0
221 1 -96.8899994 -73.0294189 0.0
222 1 -96.8637162 -74.4275666 0.0
223 1 -94.4789353 -72.9756088 0.0
224 1 -94.4847489 -74.3771286 0.0
225 1 -92.101944 -72.9344788 0.0
226 1 -92.1089859 -74.3530274 0.0
227 1 -89.6007462 -72.9488754 0.0
228 1 -89.6253891 -74.3346939 0.0
229 1 -87.14888 -72.9745484 0.0
230 1 -87.1616058 -74.3721161 0.0
231 1 -84.6921921 -72.9918442 0.0
232 1 -84.7402191 -74.3613205 0.0
233 1 -82.2506943 -73.0313568 0.0
234 1 -82.2322922 -74.4243698 0.0
235 1 -79.7753906 -73.0185471 0.0
236 1 -79.8534852 -74.415535 0.0
237 1 -77.3672791 -72.9676438 0.0
238 1 -77.3425903 -74.373024 0.0
239 1 -74.8821106 -72.9402008 0.0
240 1 -74.8515626 -74.3270416 0.0
241 1 -98.1695557 -70.9089128 0.0
242 1 -98.1256867 -72.3241501 0.0
243 1 -95.6932297 -70.8527222 0.0
244 1 -95.7145844 -72.2725983 0.0
245 1 -93.2455902 -70.799675 0.0
246 1 -93.2985687 -72.2133637 0.0
247 1 -90.7982559 -70.835907 0.0
248 1 -90.8484802 -72.2551117 0.0
249 1 -88.32901 -70.7910385 0.0
250 1 -88.3564835 -72.1915894 0.0
251 1 -85.8730774 -70.8403168 0.0
252 1 -85.9075928 -72.2720032 0.0
253 1 -83.4644242 -70.8744584 0.0
254 1 -83.4526215 -72.3330155 0.0
255 1 -81.0235367 -70.8697662 0.0
256 1 -81.0276566 -72.3130951 0.0
257 1 -78.5793534 -70.8555222 0.0
258 1 -78.6186142 -72.2831879 0.0
259 1 -76.1324616 -70.8483888 0.0
260 1 -76.1505966 -72.2944946 0.0
261 1 -96.9562378 -68.7519303 0.0
262 1 -96.9482118 -70.1250763 0.0
263 1 -94.5094528 -68.7161331 0.0
264 1 -94.4657746 -70.1365128 0.0
265 1 -92.0535431 -68.7524033 0.0
266 1 -92.0413361 -70.1603317 0.0
267 1 -89.629242 -68.7642594 0.0
268 1 -89.5622177 -70.1286926 0.0
269 1 -87.1096191 -68.7185135 0.0
270 1 -87.1007462 -70.1335144 0.0
271 1 -84.6791992 -68.7141419 0.0
272 1 -84.6292954 -70.1404343 0.0
273 1 -82.2585068 -68.7468643 0.0
274 1 -82.2629318 -70.151947 0.0
275 1 -79.8169861 -68.7060395 0.0
276 1 -79.8336945 -70.1018143 0.0
277 1 -77.3867188 -68.7460785 0.0
278 1 -77.3900223 -70.1770477 0.0
279 1 -74.941208 -68.7302399 0.0
280 1 -74.9019852 -70.128891 0.0
281 1 -98.124939 -66.5871964 0.0
282 1 -98.1366654 -68.0072479 0.0
283 1 -95.7389145 -66.6165695 0.0
284 1 -95.7335129 -68.033493 0.0
285 1 -93.2448349 -66.6560745 0.0
286 1 -93.2563858 -68.050148 0.0
287 1 -90.839653 -66.6104203 0.0
288 1 -90.8339615 -68.0339813 0.0
289 1 -88.4021988 -66.6020966 0.0
290 1 -88.4002609 -68.0269699 0.0
291 1 -85.899437 -66.6340485 0.0
292 1 -85.9052888 -68.0439377 0.0
293 1 -83.4700547 -66.6013565 0.0
294 1 -83.4618378 -67.994072 0.0
295 1 -81.0686111 -66.5986786 0.0
296 1 -81.0146637 -68.0420609 0.0
297 1 -78.5785523 -66.6344376 0.0
298 1 -78.5739517 -68.0453033 0.0
299 1 -76.1561203 -66.6385803 0.0
300 1 -76.1674118 -68.037262 0.0
301 1 -96.9310456 -65.860428 0.0
302 1 -94.4942551 -65.9566346 0.0
303 1 -92.0714874 -65.8908768 0.0
304 1 -89.6393891 -65.852768 0.0
305 1 -87.1807098 -65.9220124 0.0
306 1 -84.7019501 -65.8871384 0.0
307 1 -82.2861099 -65.9153596 0.0
20 1 -76.1309357 -97.6671219 0.0
4 1 -95.6491547 -97.6676789 0.0
2 1 -98.1053391 -97.7102204 0.0
311 1 -96.9720154 -64.4676438 0.0
312 1 -94.5084229 -64.5482102 0.0
313 1 -92.0627747 -64.4942551 0.0
314 1 -89.6756516 -64.4602738 0.0
315 1 -87.2028122 -64.5331421 0.0
316 1 -84.7543793 -64.4426117 0.0
317 1 -82.3069382 -64.4740906 0.0
318 1 -79.8114014 -64.5026474 0.0
319 1 -77.3688965 -64.5247269 0.0
320 1 -74.9347992 -64.5300675 0.0
321 1 -98.1870499 -62.4078293 0.0
322 1 -98.1795654 -63.8242913 0.0
323 1 -95.7210541 -62.3907089 0.0
324 1 -95.7037735 -63.7999954 0.0
325 1 -93.3061142 -62.4125824 0.0
326 1 -93.2816544 -63.8092079 0.0
327 1 -90.873787 -62.3513985 0.0
328 1 -90.8748322 -63.7631798 0.0
329 1 -88.4470444 -62.4585762 0.0
330 1 -88.4459534 -63.8495522 0.0
331 1 -85.9814148 -62.4216728 0.0
332 1 -85.9902878 -63.8416138 0.0
333 1 -83.5195542 -62.3480034 0.0
334 1 -83.5379029 -63.770134 0.0
335 1 -81.0332794 -62.3395233 0.0
336 1 -81.0022507 -63.7411537 0.0
337 1 -78.5873871 -62.3972702 0.0
338 1 -78.576767 -63.8006401 0.0
339 1 -76.1554184 -62.3910866 0.0
340 1 -76.1958008 -63.8160858 0.0
341 1 -96.9264604 -60.2200813 0.0
342 1 -96.9036102 -61.6848412 0.0
343 1 -94.4997635 -60.2831421 0.0
344 1 -94.5211487 -61.6602059 0.0
345 1 -92.0595169 -60.2662392 0.0
346 1 -92.1024323 -61.6835823 0.0
347 1 -89.6314545 -60.2620812 0.0
348 1 -89.6571732 -61.6963463 0.0
349 1 -87.1479034 -60.2849465 0.0
350 1 -87.2127533 -61.7244377 0.0
351 1 -84.7403565 -60.2755242 0.0
352 1 -84.7581024 -61.7089653 0.0
353 1 -82.3218689 -60.2866516 0.0
354 1 -82.2853089 -61.6960793 0.0
355 1 -79.8141098 -60.2715416 0.0
356 1 -79.824379 -61.631752 0.0
357 1 -77.3393479 -60.2924767 0.0
358 1 -77.3885422 -61.7089424 0.0
359 1 -74.9414444 -60.3218804 0.0
360 1 -74.9130784 -61.7526627 0.0
361 1 -98.1501617 -58.1409111 0.0
362 1 -98.1693268 -59.5573693 0.0
363 1 -95.6845551 -58.1653481 0.0
364 1 -95.7201462 -59.5669823 0.0
365 1 -93.2424317 -58.1532288 0.0
366 1 -93.2867355 -59.5619316 0.0
367 1 -90.8401566 -58.1935539 0.0
368 1 -90.8720016 -59.5679627 0.0
369 1 -88.406723 -58.1662598 0.0
370 1 -88.4273911 -59.5277481 0.0
371 1 -85.9138412 -58.1525459 0.0
372 1 -85.9195862 -59.5756645 0.0
373 1 -83.4523392 -58.1412621 0.0
374 1 -83.5222473 -59.5723114 0.0
375 1 -81.0247498 -58.2094383 0.0
376 1 -81.0590668 -59.58527 0.0
377 1 -78.557724 -58.1916695 0.0
378 1 -78.5968399 -59.6114693 0.0
379 1 -76.1145935 -58.1340942 0.0
380 1 -76.1434403 -59.5199547 0.0
381 1 -96.9234162 -56.0060577 0.0
382 1 -96.913704 -57.4301758 0.0
383 1 -94.4660034 -56.0459862 0.0
384 1 -94.4662781 -57.4250374 0.0
385 1 -92.0210266 -56.0219688 0.0
386 1 -92.0453491 -57.4526367 0.0
387 1 -89.5774079 -56.0473061 0.0
388 1 -89.6101609 -57.4653435 0.0
389 1 -87.1716156 -56.0755577 0.0
390 1 -87.1542587 -57.4927941 0.0
391 1 -84.6934738 -55.987999 0.0
392 1 -84.6729203 -57.4296913 0.0
393 1 -82.2464371 -56.0351295 0.0
394 1 -82.2003555 -57.4292603 0.0
395 1 -79.7763138 -56.039772 0.0
396 1 -79.7821808 -57.4578858 0.0
397 1 -77.3474426 -56.0940475 0.0
398 1 -77.3399048 -57.4853821 0.0
399 1 -74.9321748 -56.0083237 0.0
400 1 -74.9180528 -57.3889923 0.0
401 1 -98.1493378 -53.9504242 0.0
402 1 -98.1828613 -55.3385735 0.0
403 1 -95.6782532 -53.9312554 0.0
404 1 -95.6848068 -55.3245926 0.0
405 1 -93.2399826 -53.8904228 0.0
406 1 -93.2591171 -55.3063088 0.0
407 1 -90.7652512 -53.8746414 0.0
408 1 -90.81987 -55.3202057 0.0
409 1 -88.3641281 -53.9306184 0.0
410 1 -88.3427658 -55.3393936 0.0
411 1 -85.9350128 -53.9115982 0.0
412 1 -85.9684906 -55.3206368 0.0
413 1 -83.4553986 -53.8956032 0.0
414 1 -83.4590302 -55.2803726 0.0
415 1 -81.0139771 -53.9107858 0.0
416 1 -81.0061035 -55.3537903 0.0
417 1 -78.5687866 -53.905201 0.0
418 1 -78.5309067 -55.3094635 0.0
419 1 -76.1082687 -53.9132118 0.0
420 1 -76.1592712 -55.3541908 0.0
421 1 -96.899086 -51.8456498 0.0
422 1 -96.9296112 -53.2229157 0.0
423 1 -94.487526 -51.8060837 0.0
424 1 -94.4550247 -53.2183457 0.0
425 1 -92.0301514 -51.8045578 0.0
426 1 -92.0115891 -53.1728516 0.0
427 1 -89.5882874 -51.7852173 0.0
428 1 -89.5776291 -53.2081375 0.0
429 1 -87.2086868 -51.7910805 0.0
430 1 -87.1828308 -53.1761589 0.0
431 1 -84.7009354 -51.8086396 0.0
432 1 -84.6814041 -53.2263336 0.0
433 1 -82.1831894 -51.7964859 0.0
434 1 -82.241127 -53.21772 0.0
435 1 -79.7479553 -51.8297386 0.0
436 1 -79.7913895 -53.2157478 0.0
437 1 -77.3420715 -51.8171997 0.0
438 1 -77.3264008 -53.2043686 0.0
439 1 -74.8904878 -51.7819824 0.0
440 1 -74.8805848 -53.233345 0.0
441 1 -98.0956802 -49.7356301 0.0
442 1 -98.1224518 -51.1674995 0.0
443 1 -95.7263794 -49.7249985 0.0
444 1 -95.7052536 -51.1140556 0.0
445 1 -93.2757797 -49.7330818 0.0
446 1 -93.2553253 -51.1213875 0.0
447 1 -90.852173 -49.6698914 0.0
448 1 -90.8318405 -51.0825691 0.0
449 1 -88.4156037 -49.6954117 0.0
450 1 -88.4039078 -51.0741348 0.0
451 1 -85.9449768 -49.695797 0.0
452 1 -85.942009 -51.1171341 0.0
453 1 -83.4526978 -49.7045861 0.0
454 1 -83.43396 -51.0973816 0.0
455 1 -81.0263748 -49.7159691 0.0
456 1 -80.9601136 -51.1262245 0.0
457 1 -78.5659867 -49.6850968 0.0
458 1 -78.5578308 -51.0802956 0.0
459 1 -76.084671 -49.6931229 0.0
460 1 -76.1097641 -51.1031456 0.0
461 1 -96.8723068 -47.6511536 0.0
462 1 -96.924286 -49.0678329 0.0
463 1 -94.4495926 -47.6487313 0.0
464 1 -94.5098191 -49.0560722 0.0
465 1 -92.0537949 -47.5733757 0.0
466 1 -92.1146851 -48.956585 0.0
467 1 -89.5748139 -47.564579 0.0
468 1 -89.6664734 -48.942341 0.0
469 1 -87.1540375 -47.5148468 0.0
470 1 -87.1654129 -48.988678 0.0
471 1 -84.7408295 -47.5764961 0.0
472 1 -84.7303772 -48.9950752 0.0
473 1 -82.2363815 -47.5482559 0.0
474 1 -82.2462006 -48.9837686 0.0
475 1 -79.839653 -47.577404 0.0
476 1 -79.8078232 -48.9866486 0.0
477 1 -77.3399735 -47.6077805 0.0
478 1 -77.370285 -48.9985658 0.0
479 1 -74.9074554 -47.5614434 0.0
480 1 -74.7991257 -48.9588394 0.0
481 1 -98.105217 -45.5431748 0.0
482 1 -98.1132507 -46.9420854 0.0
483 1 -95.6551895 -45.4840508 0.0
484 1 -95.6725006 -46.9026032 0.0
485 1 -93.2638855 -45.430378 0.0
486 1 -93.255661 -46.8560524 0.0
487 1 -90.8630524 -45.4419365 0.0
488 1 -90.820488 -46.8780632 0.0
489 1 -88.418663 -45.4078407 0.0
490 1 -88.3783951 -46.853737 0.0
491 1 -85.9360352 -45.4666939 0.0
492 1 -85.9293214 -46.8263321 0.0
493 1 -83.4655838 -45.4316902 0.0
494 1 -83.5150986 -46.8698158 0.0
495 1 -81.0138168 -45.4899407 0.0
496 1 -81.0119247 -46.8967248 0.0
497 1 -78.5311051 -45.4595833 0.0
498 1 -78.5688706 -46.90242 0.0
499 1 -76.0800324 -45.4904747 0.0
500 1 -76.1491699 -46.9138146 0.0
501 1 -96.8957748 -43.3602524 0.0
502 1 -96.9107666 -44.7901116 0.0
503 1 -94.4835434 -43.3749085 0.0
504 1 -94.4809952 -44.7639923 0.0
505 1 -92.0350952 -43.290741 0.0
506 1 -92.0524445 -44.7163468 0.0
507 1 -89.5926285 -43.2596474 0.0
508 1 -89.6505203 -44.6941262 0.0
509 1 -87.1343689 -43.3614273 0.0
510 1 -87.1617966 -44.745678 0.0
511 1 -84.7093277 -43.3357735 0.0
512 1 -84.714859 -44.7438088 0.0
513 1 -82.2199555 -43.3678665 0.0
514 1 -82.2317581 -44.74086 0.0
515 1 -79.7266312 -43.3602715 0.0
516 1 -79.7748795 -44.7691612 0.0
517 1 -77.3106156 -43.348999 0.0
518 1 -77.295372 -44.7834397 0.0
519 1 -74.8471146 -43.3673706 0.0
520 1 -74.8671952 -44.7809487 0.0
521 1 -98.1513977 -41.2537842 0.0
522 1 -98.1389771 -42.6711006 0.0
523 1 -95.6600113 -41.2204476 0.0
524 1 -95.6403733 -42.6807595 0.0
525 1 -93.2838898 -41.1645813 0.0
526 1 -93.2736588 -42.6369934 0.0
527 1 -90.7947693 -41.1717682 0.0
528 1 -90.8477784 -42.5567169 0.0
529 1 -88.3470307 -41.1728287 0.0
530 1 -88.3507767 -42.6067772 0.0
531 1 -85.9086152 -41.1915703 0.0
532 1 -85.928032 -42.5932122 0.0
533 1 -83.4474106 -41.2501946 0.0
534 1 -83.4345932 -42.6550026 0.0
535 1 -80.9653398 -41.2483025 0.0
536 1 -80.9832994 -42.6585808 0.0
537 1 -78.4953156 -41.2534065 0.0
538 1 -78.5354691 -42.6505165 0.0
539 1 -76.1152268 -41.2107163 0.0
540 1 -76.0849075 -42.6683159 0.0
541 1 -96.9662782 -39.083416 0.0
542 1 -96.9494248 -40.5180969 0.0
543 1 -94.5019303 -39.1156273 0.0
544 1 -94.4802094 -40.5138054 0.0
545 1 -92.0035553 -39.0898781 0.0
546 1 -92.0105896 -40.4837303 0.0
547 1 -89.5470581 -39.0756722 0.0
548 1 -89.563736 -40.4641876 0.0
549 1 -87.1068573 -39.0522232 0.0
550 1 -87.1087723 -40.4615631 0.0
551 1 -84.6515656 -39.0591049 0.0
552 1 -84.6501694 -40.4429322 0.0
553 1 -82.1960526 -39.1352501 0.0
554 1 -82.2074738 -40.5960274 0.0
555 1 -79.7426224 -39.1151772 0.0
556 1 -79.7213211 -40.5306244 0.0
557 1 -77.3177948 -39.0710297 0.0
558 1 -77.3052292 -40.5025521 0.0
559 1 -74.8730698 -39.1355743 0.0
560 1 -74.8924484 -40.5291367 0.0
561 1 -98.1448898 -36.9771156 0.0
562 1 -98.1442337 -38.3850403 0.0
563 1 -95.6768875 -36.9752542 0.0
564 1 -95.7202149 -38.3735733 0.0
565 1 -93.2332382 -37.0072937 0.0
566 1 -93.2463455 -38.4032402 0.0
567 1 -90.800026 -36.9643746 0.0
568 1 -90.7896271 -38.3709679 0.0
569 1 -88.3640671 -36.928814 0.0
570 1 -88.3034516 -38.362114 0.0
571 1 -85.8844682 -36.9563256 0.0
572 1 -85.8478394 -38.3707123 0.0
573 1 -83.4513932 -36.9533082 0.0
574 1 -83.4090576 -38.3871307 0.0
575 1 -80.9853364 -36.952839 0.0
576 1 -80.9917068 -38.4043541 0.0
577 1 -78.5421753 -36.951931 0.0
578 1 -78.5635147 -38.3654595 0.0
579 1 -76.07621 -36.9713136 0.0
580 1 -76.133255 -38.3870659 0.0
581 1 -96.888649 -34.8723106 0.0
582 1 -96.93042 -36.2611542 0.0
583 1 -94.4306031 -34.873806 0.0
584 1 -94.4521637 -36.2922478 0.0
585 1 -92.0418777 -34.8624116 0.0
586 1 -92.0201721 -36.2739678 0.0
587 1 -89.5993195 -34.8384743 0.0
588 1 -89.5810623 -36.2464371 0.0
589 1 -87.1147919 -34.8454132 0.0
590 1 -87.1419525 -36.231144 0.0
591 1 -84.6694641 -34.8509254 0.0
592 1 -84.7022324 -36.2623444 0.0
593 1 -82.1629334 -34.8738748 0.0
594 1 -82.2124863 -36.2799378 0.0
595 1 -79.7732544 -34.8803978 0.0
596 1 -79.7729264 -36.2655106 0.0
597 1 -77.3553085 -34.8406182 0.0
598 1 -77.3123856 -36.2569199 0.0
599 1 -74.850731 -34.8772622 0.0
600 1 -74.8461534 -36.3357506 0.0
601 1 -98.1152573 -34.172287 0.0
602 1 -95.661583 -34.1955261 0.0
603 1 -93.2494278 -34.1642227 0.0
604 1 -90.8335037 -34.1769905 0.0
605 1 -88.3365936 -34.1388054 0.0
606 1 -85.9308548 -34.1217079 0.0
607 1 -83.4116974 -34.1663055 0.0
608 1 -80.9876022 -34.1302986 0.0
609 1 -78.5459824 -34.1406136 0.0
610 1 -76.1054382 -34.1683044 0.0
611 1 -98.1654663 -32.7654228 0.0
612 1 -95.6835022 -32.8021965 0.0
620 1 -76.0699768 -32.7605324 0.0
920 1 -74.8719636 -2.3496735 0.0
919 1 -74.9251862 -0.950598 0.0
918 1 -77.3133621 -2.3590448 0.0
917 1 -77.3619309 -0.934671 0.0
916 1 -79.7902222 -2.3603835 0.0
616 1 -85.9113694 -32.707737 0.0
617 1 -83.4407425 -32.7161026 0.0
618 1 -80.9922868 -32.7024422 0.0
619 1 -78.5362931 -32.7168541 0.0
915 1 -79.7985688 -0.9294658 0.0
621 1 -96.9495926 -30.6446705 0.0
622 1 -96.9574586 -32.0739059 0.0
623 1 -94.494606 -30.6652775 0.0
624 1 -94.4735108 -32.0432243 0.0
625 1 -92.0525436 -30.637722 0.0
626 1 -92.0372391 -32.0353127 0.0
627 1 -89.5547104 -30.6774578 0.0
628 1 -89.5545273 -32.085762 0.0
629 1 -87.1388397 -30.6426354 0.0
630 1 -87.0900345 -32.0190392 0.0
631 1 -84.655365 -30.5870495 0.0
632 1 -84.6419449 -32.0101585 0.0
633 1 -82.2361374 -30.6210518 0.0
634 1 -82.237236 -31.99576 0.0
635 1 -79.7461167 -30.6214772 0.0
636 1 -79.7490616 -32.0496674 0.0
637 1 -77.3459702 -30.5959244 0.0
638 1 -77.3253403 -32.0154266 0.0
639 1 -74.8289261 -30.6689644 0.0
640 1 -74.830513 -32.1092606 0.0
641 1 -98.2025757 -28.5429535 0.0
642 1 -98.1597748 -29.982834 0.0
643 1 -95.7026444 -28.5828724 0.0
644 1 -95.7274552 -29.995697 0.0
645 1 -93.2545395 -28.5615044 0.0
646 1 -93.2722244 -29.9688626 0.0
647 1 -90.8139878 -28.5074692 0.0
648 1 -90.7957154 -29.9066392 0.0
649 1 -88.3699417 -28.5274697 0.0
650 1 -88.3483582 -29.9548798 0.0
651 1 -85.9279862 -28.4516545 0.0
652 1 -85.874672 -29.8682824 0.0
653 1 -83.4885254 -28.5021076 0.0
654 1 -83.4158173 -29.8898888 0.0
655 1 -80.9893188 -28.531807 0.0
656 1 -80.9915314 -29.9710256 0.0
657 1 -78.5007019 -28.4546147 0.0
658 1 -78.5626602 -29.9061204 0.0
659 1 -76.1118164 -28.5606385 0.0
660 1 -76.1121368 -29.9830666 0.0
661 1 -96.9459382 -26.398634 0.0
662 1 -96.9310074 -27.8568172 0.0
663 1 -94.4696121 -26.4439469 0.0
664 1 -94.4833145 -27.8536358 0.0
665 1 -91.9874496 -26.4316864 0.0
666 1 -92.0357361 -27.8254509 0.0
667 1 -89.5643082 -26.3753872 0.0
668 1 -89.5504837 -27.8050061 0.0
669 1 -87.1444931 -26.4213867 0.0
670 1 -87.1619568 -27.7954712 0.0
671 1 -84.7416001 -26.4167843 0.0
672 1 -84.7219773 -27.7811222 0.0
673 1 -82.2757721 -26.4251786 0.0
674 1 -82.2293396 -27.8284664 0.0
675 1 -79.794487 -26.3817101 0.0
676 1 -79.7393265 -27.8167877 0.0
677 1 -77.296669 -26.3963452 0.0
678 1 -77.2860336 -27.8218651 0.0
679 1 -74.8541566 -26.405777 0.0
680 1 -74.8979568 -27.8236656 0.0
681 1 -98.1312103 -24.2802277 0.0
682 1 -98.1543808 -25.7196446 0.0
683 1 -95.6985321 -24.3265362 0.0
684 1 -95.6796417 -25.7344303 0.0
685 1 -93.2205887 -24.3144302 0.0
686 1 -93.2322846 -25.7446289 0.0
687 1 -90.7819596 -24.2855969 0.0
688 1 -90.7979431 -25.693451 0.0
689 1 -88.3507614 -24.2760086 0.0
690 1 -88.3312683 -25.6911831 0.0
691 1 -85.9120178 -24.2866058 0.0
692 1 -85.9556198 -25.6816883 0.0
693 1 -83.4725418 -24.3036175 0.0
694 1 -83.4902115 -25.7460556 0.0
695 1 -81.0093613 -24.3246079 0.0
696 1 -81.0537872 -25.7054005 0.0
697 1 -78.5513916 -24.2356529 0.0
698 1 -78.5600434 -25.7019825 0.0
699 1 -76.0801468 -24.2670899 0.0
700 1 -76.0782242 -25.6654263 0.0
701 1 -96.8599092 -22.1848259 0.0
702 1 -96.9133378 -23.5983048 0.0
703 1 -94.4136963 -22.1975308 0.0
704 1 -94.4697266 -23.5988426 0.0
705 1 -91.9785234 -22.1957741 0.0
706 1 -92.0181732 -23.6294403 0.0
707 1 -89.5898285 -22.1826878 0.0
708 1 -89.5844956 -23.602684 0.0
709 1 -87.1074829 -22.1967621 0.0
710 1 -87.1149063 -23.5936852 0.0
711 1 -84.6991577 -22.1440315 0.0
712 1 -84.664589 -23.5546437 0.0
713 1 -82.2519302 -22.208746 0.0
714 1 -82.2288895 -23.6358891 0.0
715 1 -79.8074494 -22.1699982 0.0
716 1 -79.80439 -23.6050263 0.0
717 1 -77.3506394 -22.1165791 0.0
718 1 -77.3151779 -23.5643101 0.0
719 1 -74.9127502 -22.196249 0.0
720 1 -74.8456574 -23.5889988 0.0
721 1 -98.0735397 -20.1126919 0.0
722 1 -98.0934677 -21.500351 0.0
723 1 -95.6494904 -20.0990353 0.0
724 1 -95.6566162 -21.5211315 0.0
725 1 -93.2169342 -20.0661736 0.0
726 1 -93.2286072 -21.4726811 0.0
727 1 -90.7997818 -20.0603237 0.0
728 1 -90.7571183 -21.4617348 0.0
729 1 -88.3450318 -20.072155 0.0
730 1 -88.3504563 -21.4898777 0.0
731 1 -85.8670426 -20.0229549 0.0
732 1 -85.91671 -21.4620037 0.0
733 1 -83.4219971 -20.0605812 0.0
734 1 -83.4666367 -21.4523201 0.0
735 1 -80.9546968 -20.0392056 0.0
736 1 -81.0350418 -21.448143 0.0
737 1 -78.519188 -20.0235577 0.0
738 1 -78.578598 -21.4454193 0.0
739 1 -76.0750198 -20.0233479 0.0
740 1 -76.0935593 -21.4230862 0.0
741 1 -96.8197327 -17.912058 0.0
742 1 -96.8908006 -19.353466 0.0
743 1 -94.3955383 -17.9148484 0.0
744 1 -94.4232712 -19.3672314 0.0
745 1 -91.9836808 -17.9933072 0.0
746 1 -92.0235748 -19.3684387 0.0
747 1 -89.5063629 -17.9379788 0.0
748 1 -89.5420304 -19.3922157 0.0
749 1 -87.0898895 -17.94829 0.0
750 1 -87.1593704 -19.3794708 0.0
751 1 -84.6332474 -17.9452554 0.0
752 1 -84.6335678 -19.3374043 0.0
753 1 -82.2039414 -17.974184 0.0
754 1 -82.1677475 -19.3799839 0.0
755 1 -79.7513962 -17.903614 0.0
756 1 -79.7735214 -19.3035412 0.0
757 1 -77.3048172 -17.8598538 0.0
758 1 -77.3124008 -19.293953 0.0
759 1 -74.847847 -17.8851128 0.0
760 1 -74.867363 -19.2737408 0.0
761 1 -98.0642395 -15.8349438 0.0
762 1 -98.0666122 -17.2443619 0.0
763 1 -95.6220627 -15.8072777 0.0
764 1 -95.5825959 -17.2299481 0.0
765 1 -93.1786499 -15.8554574 0.0
766 1 -93.157486 -17.2762032 0.0
767 1 -90.7036667 -15.8234816 0.0
768 1 -90.7307205 -17.2412663 0.0
769 1 -88.2865906 -15.8258581 0.0
770 1 -88.2959061 -17.2423287 0.0
771 1 -85.8078461 -15.813695 0.0
772 1 -85.8561326 -17.2753086 0.0
773 1 -83.3779831 -15.8577862 0.0
774 1 -83.3737183 -17.2751675 0.0
775 1 -80.9478836 -15.8584662 0.0
776 1 -80.979805 -17.2653828 0.0
777 1 -78.5372086 -15.7777806 0.0
778 1 -78.5934448 -17.198967 0.0
779 1 -76.0810089 -15.7614136 0.0
780 1 -76.0938416 -17.1544151 0.0
781 1 -96.8573914 -13.7647143 0.0
782 1 -96.842064 -15.0967226 0.0
783 1 -94.3829422 -13.7312165 0.0
784 1 -94.3612824 -15.1539116 0.0
785 1 -92.012825 -13.7266808 0.0
786 1 -91.9671784 -15.1079569 0.0
787 1 -89.5533676 -13.7067452 0.0
788 1 -89.5016709 -15.1498566 0.0
789 1 -87.0472794 -13.6498823 0.0
790 1 -87.0385056 -15.0946312 0.0
791 1 -84.5991974 -13.7074576 0.0
792 1 -84.6167908 -15.1132011 0.0
793 1 -82.2054901 -13.6855383 0.0
794 1 -82.1737137 -15.1316423 0.0
795 1 -79.8145523 -13.6665592 0.0
796 1 -79.7353745 -15.0638113 0.0
797 1 -77.3238907 -13.6882839 0.0
798 1 -77.3408508 -15.070509 0.0
799 1 -74.8869172 -13.6454191 0.0
800 1 -74.877121 -15.0916986 0.0
801 1 -98.0979919 -11.6160021 0.0
802 1 -98.0958862 -13.0352411 0.0
803 1 -95.6462479 -11.593482 0.0
804 1 -95.6213074 -13.0398607 0.0
805 1 -93.2420044 -11.6298781 0.0
806 1 -93.2100754 -13.0056677 0.0
807 1 -90.7712937 -11.5673723 0.0
808 1 -90.7583237 -12.9837408 0.0
809 1 -88.3397217 -11.6117373 0.0
810 1 -88.2836685 -13.0301895 0.0
811 1 -85.8912812 -11.5893059 0.0
812 1 -85.8321381 -12.9948388 0.0
813 1 -83.487236 -11.5421801 0.0
814 1 -83.4172516 -12.986456 0.0
815 1 -80.9870378 -11.5500965 0.0
816 1 -80.9998322 -12.9964992 0.0
817 1 -78.5436783 -11.5666371 0.0
818 1 -78.544632 -12.9725066 0.0
819 1 -76.1311264 -11.5503435 0.0
820 1 -76.1102829 -12.9370032 0.0
821 1 -96.8739396 -9.5007305 0.0
822 1 -96.8795014 -10.936821 0.0
823 1 -94.4695359 -9.4492102 0.0
824 1 -94.4009171 -10.8566408 0.0
825 1 -92.0341568 -9.4900866 0.0
826 1 -92.0245209 -10.8893138 0.0
827 1 -89.5925675 -9.4859572 0.0
828 1 -89.5470429 -10.8795614 0.0
829 1 -87.1347961 -9.4702406 0.0
830 1 -87.1269455 -10.8961268 0.0
831 1 -84.6981964 -9.5039501 0.0
832 1 -84.690651 -10.8801098 0.0
833 1 -82.2716828 -9.4589625 0.0
834 1 -82.2230072 -10.8820258 0.0
835 1 -79.8016052 -9.4330426 0.0
836 1 -79.769043 -10.8402224 0.0
837 1 -77.3628998 -9.4056902 0.0
838 1 -77.333931 -10.8328429 0.0
839 1 -74.8808212 -9.4135065 0.0
840 1 -74.9138032 -10.8266936 0.0
841 1 -98.0869751 -7.3679981 0.0
842 1 -98.1147842 -8.7797776 0.0
843 1 -95.668602 -7.3173871 0.0
844 1 -95.6640091 -8.7502918 0.0
845 1 -93.2178192 -7.3573728 0.0
846 1 -93.2116165 -8.7424135 0.0
847 1 -90.7930222 -7.3544784 0.0
848 1 -90.8214875 -8.7567272 0.0
849 1 -88.343689 -7.3037548 0.0
850 1 -88.3209305 -8.7391739 0.0
851 1 -85.9075394 -7.3237252 0.0
852 1 -85.9083176 -8.7538147 0.0
853 1 -83.424263 -7.3246536 0.0
854 1 -83.4951248 -8.7395411 0.0
855 1 -81.0033951 -7.3569536 0.0
856 1 -80.997612 -8.7505932 0.0
857 1 -78.5377884 -7.2918463 0.0
858 1 -78.5492554 -8.6917591 0.0
859 1 -76.1058044 -7.3005347 0.0
860 1 -76.1097565 -8.7079535 0.0
861 1 -96.9504852 -5.2205982 0.0
862 1 -96.8473206 -6.608335 0.0
863 1 -94.528595 -5.2151418 0.0
864 1 -94.4096069 -6.6507383 0.0
865 1 -92.0948181 -5.1923261 0.0
866 1 -92.0122299 -6.6320815 0.0
867 1 -89.6549988 -5.2266283 0.0
868 1 -89.5777436 -6.662355 0.0
869 1 -87.1881409 -5.2087731 0.0
870 1 -87.1016693 -6.6489496 0.0
871 1 -84.7310334 -5.2346349 0.0
872 1 -84.6468582 -6.6375866 0.0
873 1 -82.2718582 -5.1801958 0.0
874 1 -82.2185974 -6.5962978 0.0
875 1 -79.7667923 -5.1759062 0.0
876 1 -79.7735062 -6.6155844 0.0
877 1 -77.3805466 -5.1651197 0.0
878 1 -77.3472595 -6.5380969 0.0
879 1 -74.8751756 -5.1971326 0.0
880 1 -74.8489532 -6.5995302 0.0
881 1 -98.0952148 -3.1056984 0.0
882 1 -98.1240006 -4.508761 0.0
883 1 -95.6445465 -3.1122336 0.0
884 1 -95.7389145 -4.5086284 0.0
885 1 -93.2587204 -3.0968702 0.0
886 1 -93.3170014 -4.5082422 0.0